#LAMMPS data file generated by MATLAB
48 atoms
96 bonds
144 angles

1 atom types
2 bond types
3 angle types

-20.0 20.0 xlo xhi
-20.0 20.0 ylo yhi
0.0 24.000000 zlo zhi

Masses 

1 1  

Atoms

1 1 1 5.243300 0.000000 2.000000
2 1 1 3.707573 3.707573 2.000000
3 1 1 0.000000 5.243300 2.000000
4 1 1 -3.707573 3.707573 2.000000
5 1 1 -5.243300 0.000000 2.000000
6 1 1 -3.707573 -3.707573 2.000000
7 1 1 -0.000000 -5.243300 2.000000
8 1 1 3.707573 -3.707573 2.000000
9 1 1 5.243300 0.000000 6.000000
10 1 1 3.707573 3.707573 6.000000
11 1 1 0.000000 5.243300 6.000000
12 1 1 -3.707573 3.707573 6.000000
13 1 1 -5.243300 0.000000 6.000000
14 1 1 -3.707573 -3.707573 6.000000
15 1 1 -0.000000 -5.243300 6.000000
16 1 1 3.707573 -3.707573 6.000000
17 1 1 5.243300 0.000000 10.000000
18 1 1 3.707573 3.707573 10.000000
19 1 1 0.000000 5.243300 10.000000
20 1 1 -3.707573 3.707573 10.000000
21 1 1 -5.243300 0.000000 10.000000
22 1 1 -3.707573 -3.707573 10.000000
23 1 1 -0.000000 -5.243300 10.000000
24 1 1 3.707573 -3.707573 10.000000
25 1 1 5.243300 0.000000 14.000000
26 1 1 3.707573 3.707573 14.000000
27 1 1 0.000000 5.243300 14.000000
28 1 1 -3.707573 3.707573 14.000000
29 1 1 -5.243300 0.000000 14.000000
30 1 1 -3.707573 -3.707573 14.000000
31 1 1 -0.000000 -5.243300 14.000000
32 1 1 3.707573 -3.707573 14.000000
33 1 1 5.243300 0.000000 18.000000
34 1 1 3.707573 3.707573 18.000000
35 1 1 0.000000 5.243300 18.000000
36 1 1 -3.707573 3.707573 18.000000
37 1 1 -5.243300 0.000000 18.000000
38 1 1 -3.707573 -3.707573 18.000000
39 1 1 -0.000000 -5.243300 18.000000
40 1 1 3.707573 -3.707573 18.000000
41 1 1 5.243300 0.000000 22.000000
42 1 1 3.707573 3.707573 22.000000
43 1 1 0.000000 5.243300 22.000000
44 1 1 -3.707573 3.707573 22.000000
45 1 1 -5.243300 0.000000 22.000000
46 1 1 -3.707573 -3.707573 22.000000
47 1 1 -0.000000 -5.243300 22.000000
48 1 1 3.707573 -3.707573 22.000000

Bonds

1 1 1 2
2 1 2 3
3 1 3 4
4 1 4 5
5 1 5 6
6 1 6 7
7 1 7 8
8 1 8 1
9 1 9 10
10 1 10 11
11 1 11 12
12 1 12 13
13 1 13 14
14 1 14 15
15 1 15 16
16 1 16 9
17 1 17 18
18 1 18 19
19 1 19 20
20 1 20 21
21 1 21 22
22 1 22 23
23 1 23 24
24 1 24 17
25 1 25 26
26 1 26 27
27 1 27 28
28 1 28 29
29 1 29 30
30 1 30 31
31 1 31 32
32 1 32 25
33 1 33 34
34 1 34 35
35 1 35 36
36 1 36 37
37 1 37 38
38 1 38 39
39 1 39 40
40 1 40 33
41 1 41 42
42 1 42 43
43 1 43 44
44 1 44 45
45 1 45 46
46 1 46 47
47 1 47 48
48 1 48 41
49 2 1 9
50 2 2 10
51 2 3 11
52 2 4 12
53 2 5 13
54 2 6 14
55 2 7 15
56 2 8 16
57 2 9 17
58 2 10 18
59 2 11 19
60 2 12 20
61 2 13 21
62 2 14 22
63 2 15 23
64 2 16 24
65 2 17 25
66 2 18 26
67 2 19 27
68 2 20 28
69 2 21 29
70 2 22 30
71 2 23 31
72 2 24 32
73 2 25 33
74 2 26 34
75 2 27 35
76 2 28 36
77 2 29 37
78 2 30 38
79 2 31 39
80 2 32 40
81 2 33 41
82 2 34 42
83 2 35 43
84 2 36 44
85 2 37 45
86 2 38 46
87 2 39 47
88 2 40 48
89 2 41 1
90 2 42 2
91 2 43 3
92 2 44 4
93 2 45 5
94 2 46 6
95 2 47 7
96 2 48 8

Angles

1 1 1 2 3
2 1 2 3 4
3 1 3 4 5
4 1 4 5 6
5 1 5 6 7
6 1 6 7 8
7 1 7 8 1
8 1 8 1 2
9 1 9 10 11
10 1 10 11 12
11 1 11 12 13
12 1 12 13 14
13 1 13 14 15
14 1 14 15 16
15 1 15 16 9
16 1 16 9 10
17 1 17 18 19
18 1 18 19 20
19 1 19 20 21
20 1 20 21 22
21 1 21 22 23
22 1 22 23 24
23 1 23 24 17
24 1 24 17 18
25 1 25 26 27
26 1 26 27 28
27 1 27 28 29
28 1 28 29 30
29 1 29 30 31
30 1 30 31 32
31 1 31 32 25
32 1 32 25 26
33 1 33 34 35
34 1 34 35 36
35 1 35 36 37
36 1 36 37 38
37 1 37 38 39
38 1 38 39 40
39 1 39 40 33
40 1 40 33 34
41 1 41 42 43
42 1 42 43 44
43 1 43 44 45
44 1 44 45 46
45 1 45 46 47
46 1 46 47 48
47 1 47 48 41
48 1 48 41 42
49 2 1 9 17
50 2 2 10 18
51 2 3 11 19
52 2 4 12 20
53 2 5 13 21
54 2 6 14 22
55 2 7 15 23
56 2 8 16 24
57 2 9 17 25
58 2 10 18 26
59 2 11 19 27
60 2 12 20 28
61 2 13 21 29
62 2 14 22 30
63 2 15 23 31
64 2 16 24 32
65 2 17 25 33
66 2 18 26 34
67 2 19 27 35
68 2 20 28 36
69 2 21 29 37
70 2 22 30 38
71 2 23 31 39
72 2 24 32 40
73 2 25 33 41
74 2 26 34 42
75 2 27 35 43
76 2 28 36 44
77 2 29 37 45
78 2 30 38 46
79 2 31 39 47
80 2 32 40 48
81 2 33 41 1
82 2 34 42 2
83 2 35 43 3
84 2 36 44 4
85 2 37 45 5
86 2 38 46 6
87 2 39 47 7
88 2 40 48 8
89 2 41 1 9
90 2 42 2 10
91 2 43 3 11
92 2 44 4 12
93 2 45 5 13
94 2 46 6 14
95 2 47 7 15
96 2 48 8 16
97 3 1 2 10
98 3 2 3 11
99 3 3 4 12
100 3 4 5 13
101 3 5 6 14
102 3 6 7 15
103 3 7 8 16
104 3 8 1 9
105 3 9 10 18
106 3 10 11 19
107 3 11 12 20
108 3 12 13 21
109 3 13 14 22
110 3 14 15 23
111 3 15 16 24
112 3 16 9 17
113 3 17 18 26
114 3 18 19 27
115 3 19 20 28
116 3 20 21 29
117 3 21 22 30
118 3 22 23 31
119 3 23 24 32
120 3 24 17 25
121 3 25 26 34
122 3 26 27 35
123 3 27 28 36
124 3 28 29 37
125 3 29 30 38
126 3 30 31 39
127 3 31 32 40
128 3 32 25 33
129 3 33 34 42
130 3 34 35 43
131 3 35 36 44
132 3 36 37 45
133 3 37 38 46
134 3 38 39 47
135 3 39 40 48
136 3 40 33 41
137 3 41 42 2
138 3 42 43 3
139 3 43 44 4
140 3 44 45 5
141 3 45 46 6
142 3 46 47 7
143 3 47 48 8
144 3 48 41 1
