#LAMMPS data file generated by MATLAB

25 atoms
40 bonds
36 angles

1 atom types
1 bond types
2 angle types

0.0 16.0 xlo xhi
0.0 16.0 ylo yhi
-2.0 10.000000 zlo zhi

Masses 

1 1 

Atoms

1 1 1 2.000000 2.000000 0.000000
2 1 1 2.000000 4.000000 0.000000
3 1 1 2.000000 6.000000 0.000000
4 1 1 2.000000 8.000000 0.000000
5 1 1 2.000000 10.000000 0.000000
6 1 1 4.000000 2.000000 0.000000
7 1 1 4.000000 4.000000 0.000000
8 1 1 4.000000 6.000000 0.000000
9 1 1 4.000000 8.000000 0.000000
10 1 1 4.000000 10.000000 0.000000
11 1 1 6.000000 2.000000 0.000000
12 1 1 6.000000 4.000000 0.000000
13 1 1 6.000000 6.000000 0.000000
14 1 1 6.000000 8.000000 0.000000
15 1 1 6.000000 10.000000 0.000000
16 1 1 8.000000 2.000000 0.000000
17 1 1 8.000000 4.000000 0.000000
18 1 1 8.000000 6.000000 0.000000
19 1 1 8.000000 8.000000 0.000000
20 1 1 8.000000 10.000000 0.000000
21 1 1 10.000000 2.000000 0.000000
22 1 1 10.000000 4.000000 0.000000
23 1 1 10.000000 6.000000 0.000000
24 1 1 10.000000 8.000000 0.000000
25 1 1 10.000000 10.000000 0.000000

Bonds

1 1 1 2
2 1 2 3
3 1 3 4
4 1 4 5
5 1 6 7
6 1 7 8
7 1 8 9
8 1 9 10
9 1 11 12
10 1 12 13
11 1 13 14
12 1 14 15
13 1 16 17
14 1 17 18
15 1 18 19
16 1 19 20
17 1 21 22
18 1 22 23
19 1 23 24
20 1 24 25
21 1 1 6
22 1 2 7
23 1 3 8
24 1 4 9
25 1 5 10
26 1 6 11
27 1 7 12
28 1 8 13
29 1 9 14
30 1 10 15
31 1 11 16
32 1 12 17
33 1 13 18
34 1 14 19
35 1 15 20
36 1 16 21
37 1 17 22
38 1 18 23
39 1 19 24
40 1 20 25

Angles

1 1 2 7 8
2 1 3 8 9
3 1 4 9 10
4 1 7 12 13
5 1 8 13 14
6 1 9 14 15
7 1 12 17 18
8 1 13 18 19
9 1 14 19 20
10 1 6 7 12
11 1 7 8 13
12 1 8 9 14
13 1 11 12 17
14 1 12 13 18
15 1 13 14 19
16 1 16 17 22
17 1 17 18 23
18 1 18 19 24
19 2 2 7 12
20 2 3 8 13
21 2 4 9 14
22 2 7 12 17
23 2 8 13 18
24 2 9 14 19
25 2 12 17 22
26 2 13 18 23
27 2 14 19 24
28 2 6 7 8
29 2 7 8 9
30 2 8 9 10
31 2 11 12 13
32 2 12 13 14
33 2 13 14 15
34 2 16 17 18
35 2 17 18 19
36 2 18 19 20
