#LAMMPS data file generated by MATLAB

442 atoms
841 bonds
2166 angles

3 atom types
2 bond types
2 angle types

-43.0 43.0 xlo xhi
-43.0 43.0 ylo yhi
-20.0 30.000000 zlo zhi

Masses 

1 1 
2 1
3 1

Atoms

1 1 2 2.000000 2.000000 0.000000
2 1 2 2.000000 4.000000 0.000000
3 1 2 2.000000 6.000000 0.000000
4 1 2 2.000000 8.000000 0.000000
5 1 2 2.000000 10.000000 0.000000
6 1 2 2.000000 12.000000 0.000000
7 1 2 2.000000 14.000000 0.000000
8 1 2 2.000000 16.000000 0.000000
9 1 2 2.000000 18.000000 0.000000
10 1 2 2.000000 20.000000 0.000000
11 1 2 2.000000 22.000000 0.000000
12 1 2 2.000000 24.000000 0.000000
13 1 2 2.000000 26.000000 0.000000
14 1 2 2.000000 28.000000 0.000000
15 1 2 2.000000 30.000000 0.000000
16 1 2 2.000000 32.000000 0.000000
17 1 2 2.000000 34.000000 0.000000
18 1 2 2.000000 36.000000 0.000000
19 1 2 2.000000 38.000000 0.000000
20 1 2 2.000000 40.000000 0.000000
21 1 2 2.000000 42.000000 0.000000
22 1 2 4.000000 2.000000 0.000000
23 1 1 4.000000 4.000000 0.000000
24 1 1 4.000000 6.000000 0.000000
25 1 1 4.000000 8.000000 0.000000
26 1 1 4.000000 10.000000 0.000000
27 1 1 4.000000 12.000000 0.000000
28 1 1 4.000000 14.000000 0.000000
29 1 1 4.000000 16.000000 0.000000
30 1 1 4.000000 18.000000 0.000000
31 1 1 4.000000 20.000000 0.000000
32 1 1 4.000000 22.000000 0.000000
33 1 1 4.000000 24.000000 0.000000
34 1 1 4.000000 26.000000 0.000000
35 1 1 4.000000 28.000000 0.000000
36 1 1 4.000000 30.000000 0.000000
37 1 1 4.000000 32.000000 0.000000
38 1 1 4.000000 34.000000 0.000000
39 1 1 4.000000 36.000000 0.000000
40 1 1 4.000000 38.000000 0.000000
41 1 1 4.000000 40.000000 0.000000
42 1 2 4.000000 42.000000 0.000000
43 1 1 6.000000 2.000000 0.000000
44 1 1 6.000000 4.000000 0.000000
45 1 1 6.000000 6.000000 0.000000
46 1 1 6.000000 8.000000 0.000000
47 1 1 6.000000 10.000000 0.000000
48 1 1 6.000000 12.000000 0.000000
49 1 1 6.000000 14.000000 0.000000
50 1 1 6.000000 16.000000 0.000000
51 1 1 6.000000 18.000000 0.000000
52 1 1 6.000000 20.000000 0.000000
53 1 1 6.000000 22.000000 0.000000
54 1 1 6.000000 24.000000 0.000000
55 1 1 6.000000 26.000000 0.000000
56 1 1 6.000000 28.000000 0.000000
57 1 1 6.000000 30.000000 0.000000
58 1 1 6.000000 32.000000 0.000000
59 1 1 6.000000 34.000000 0.000000
60 1 1 6.000000 36.000000 0.000000
61 1 1 6.000000 38.000000 0.000000
62 1 1 6.000000 40.000000 0.000000
63 1 2 6.000000 42.000000 0.000000
64 1 2 8.000000 2.000000 0.000000
65 1 1 8.000000 4.000000 0.000000
66 1 1 8.000000 6.000000 0.000000
67 1 1 8.000000 8.000000 0.000000
68 1 1 8.000000 10.000000 0.000000
69 1 1 8.000000 12.000000 0.000000
70 1 1 8.000000 14.000000 0.000000
71 1 1 8.000000 16.000000 0.000000
72 1 1 8.000000 18.000000 0.000000
73 1 1 8.000000 20.000000 0.000000
74 1 1 8.000000 22.000000 0.000000
75 1 1 8.000000 24.000000 0.000000
76 1 1 8.000000 26.000000 0.000000
77 1 1 8.000000 28.000000 0.000000
78 1 1 8.000000 30.000000 0.000000
79 1 1 8.000000 32.000000 0.000000
80 1 1 8.000000 34.000000 0.000000
81 1 1 8.000000 36.000000 0.000000
82 1 1 8.000000 38.000000 0.000000
83 1 1 8.000000 40.000000 0.000000
84 1 2 8.000000 42.000000 0.000000
85 1 2 10.000000 2.000000 0.000000
86 1 1 10.000000 4.000000 0.000000
87 1 1 10.000000 6.000000 0.000000
88 1 1 10.000000 8.000000 0.000000
89 1 1 10.000000 10.000000 0.000000
90 1 1 10.000000 12.000000 0.000000
91 1 1 10.000000 14.000000 0.000000
92 1 1 10.000000 16.000000 0.000000
93 1 1 10.000000 18.000000 0.000000
94 1 1 10.000000 20.000000 0.000000
95 1 1 10.000000 22.000000 0.000000
96 1 1 10.000000 24.000000 0.000000
97 1 1 10.000000 26.000000 0.000000
98 1 1 10.000000 28.000000 0.000000
99 1 1 10.000000 30.000000 0.000000
100 1 1 10.000000 32.000000 0.000000
101 1 1 10.000000 34.000000 0.000000
102 1 1 10.000000 36.000000 0.000000
103 1 1 10.000000 38.000000 0.000000
104 1 1 10.000000 40.000000 0.000000
105 1 2 10.000000 42.000000 0.000000
106 1 2 12.000000 2.000000 0.000000
107 1 1 12.000000 4.000000 0.000000
108 1 1 12.000000 6.000000 0.000000
109 1 1 12.000000 8.000000 0.000000
110 1 1 12.000000 10.000000 0.000000
111 1 1 12.000000 12.000000 0.000000
112 1 1 12.000000 14.000000 0.000000
113 1 1 12.000000 16.000000 0.000000
114 1 1 12.000000 18.000000 0.000000
115 1 1 12.000000 20.000000 0.000000
116 1 1 12.000000 22.000000 0.000000
117 1 1 12.000000 24.000000 0.000000
118 1 1 12.000000 26.000000 0.000000
119 1 1 12.000000 28.000000 0.000000
120 1 1 12.000000 30.000000 0.000000
121 1 1 12.000000 32.000000 0.000000
122 1 1 12.000000 34.000000 0.000000
123 1 1 12.000000 36.000000 0.000000
124 1 1 12.000000 38.000000 0.000000
125 1 1 12.000000 40.000000 0.000000
126 1 2 12.000000 42.000000 0.000000
127 1 2 14.000000 2.000000 0.000000
128 1 1 14.000000 4.000000 0.000000
129 1 1 14.000000 6.000000 0.000000
130 1 1 14.000000 8.000000 0.000000
131 1 1 14.000000 10.000000 0.000000
132 1 1 14.000000 12.000000 0.000000
133 1 1 14.000000 14.000000 0.000000
134 1 1 14.000000 16.000000 0.000000
135 1 1 14.000000 18.000000 0.000000
136 1 1 14.000000 20.000000 0.000000
137 1 1 14.000000 22.000000 0.000000
138 1 1 14.000000 24.000000 0.000000
139 1 1 14.000000 26.000000 0.000000
140 1 1 14.000000 28.000000 0.000000
141 1 1 14.000000 30.000000 0.000000
142 1 1 14.000000 32.000000 0.000000
143 1 1 14.000000 34.000000 0.000000
144 1 1 14.000000 36.000000 0.000000
145 1 1 14.000000 38.000000 0.000000
146 1 1 14.000000 40.000000 0.000000
147 1 2 14.000000 42.000000 0.000000
148 1 2 16.000000 2.000000 0.000000
149 1 1 16.000000 4.000000 0.000000
150 1 1 16.000000 6.000000 0.000000
151 1 1 16.000000 8.000000 0.000000
152 1 1 16.000000 10.000000 0.000000
153 1 1 16.000000 12.000000 0.000000
154 1 1 16.000000 14.000000 0.000000
155 1 1 16.000000 16.000000 0.000000
156 1 1 16.000000 18.000000 0.000000
157 1 1 16.000000 20.000000 0.000000
158 1 1 16.000000 22.000000 0.000000
159 1 1 16.000000 24.000000 0.000000
160 1 1 16.000000 26.000000 0.000000
161 1 1 16.000000 28.000000 0.000000
162 1 1 16.000000 30.000000 0.000000
163 1 1 16.000000 32.000000 0.000000
164 1 1 16.000000 34.000000 0.000000
165 1 1 16.000000 36.000000 0.000000
166 1 1 16.000000 38.000000 0.000000
167 1 1 16.000000 40.000000 0.000000
168 1 2 16.000000 42.000000 0.000000
169 1 2 18.000000 2.000000 0.000000
170 1 1 18.000000 4.000000 0.000000
171 1 1 18.000000 6.000000 0.000000
172 1 1 18.000000 8.000000 0.000000
173 1 1 18.000000 10.000000 0.000000
174 1 1 18.000000 12.000000 0.000000
175 1 1 18.000000 14.000000 0.000000
176 1 1 18.000000 16.000000 0.000000
177 1 1 18.000000 18.000000 0.000000
178 1 1 18.000000 20.000000 0.000000
179 1 1 18.000000 22.000000 0.000000
180 1 1 18.000000 24.000000 0.000000
181 1 1 18.000000 26.000000 0.000000
182 1 1 18.000000 28.000000 0.000000
183 1 1 18.000000 30.000000 0.000000
184 1 1 18.000000 32.000000 0.000000
185 1 1 18.000000 34.000000 0.000000
186 1 1 18.000000 36.000000 0.000000
187 1 1 18.000000 38.000000 0.000000
188 1 1 18.000000 40.000000 0.000000
189 1 2 18.000000 42.000000 0.000000
190 1 2 20.000000 2.000000 0.000000
191 1 1 20.000000 4.000000 0.000000
192 1 1 20.000000 6.000000 0.000000
193 1 1 20.000000 8.000000 0.000000
194 1 1 20.000000 10.000000 0.000000
195 1 1 20.000000 12.000000 0.000000
196 1 1 20.000000 14.000000 0.000000
197 1 1 20.000000 16.000000 0.000000
198 1 1 20.000000 18.000000 0.000000
199 1 1 20.000000 20.000000 0.000000
200 1 1 20.000000 22.000000 0.000000
201 1 1 20.000000 24.000000 0.000000
202 1 1 20.000000 26.000000 0.000000
203 1 1 20.000000 28.000000 0.000000
204 1 1 20.000000 30.000000 0.000000
205 1 1 20.000000 32.000000 0.000000
206 1 1 20.000000 34.000000 0.000000
207 1 1 20.000000 36.000000 0.000000
208 1 1 20.000000 38.000000 0.000000
209 1 1 20.000000 40.000000 0.000000
210 1 2 20.000000 42.000000 0.000000
211 1 2 22.000000 2.000000 0.000000
212 1 1 22.000000 4.000000 0.000000
213 1 1 22.000000 6.000000 0.000000
214 1 1 22.000000 8.000000 0.000000
215 1 1 22.000000 10.000000 0.000000
216 1 1 22.000000 12.000000 0.000000
217 1 1 22.000000 14.000000 0.000000
218 1 1 22.000000 16.000000 0.000000
219 1 1 22.000000 18.000000 0.000000
220 1 1 22.000000 20.000000 0.000000
221 1 1 22.000000 22.000000 0.000000
222 1 1 22.000000 24.000000 0.000000
223 1 1 22.000000 26.000000 0.000000
224 1 1 22.000000 28.000000 0.000000
225 1 1 22.000000 30.000000 0.000000
226 1 1 22.000000 32.000000 0.000000
227 1 1 22.000000 34.000000 0.000000
228 1 1 22.000000 36.000000 0.000000
229 1 1 22.000000 38.000000 0.000000
230 1 1 22.000000 40.000000 0.000000
231 1 2 22.000000 42.000000 0.000000
232 1 2 24.000000 2.000000 0.000000
233 1 1 24.000000 4.000000 0.000000
234 1 1 24.000000 6.000000 0.000000
235 1 1 24.000000 8.000000 0.000000
236 1 1 24.000000 10.000000 0.000000
237 1 1 24.000000 12.000000 0.000000
238 1 1 24.000000 14.000000 0.000000
239 1 1 24.000000 16.000000 0.000000
240 1 1 24.000000 18.000000 0.000000
241 1 1 24.000000 20.000000 0.000000
242 1 1 24.000000 22.000000 0.000000
243 1 1 24.000000 24.000000 0.000000
244 1 1 24.000000 26.000000 0.000000
245 1 1 24.000000 28.000000 0.000000
246 1 1 24.000000 30.000000 0.000000
247 1 1 24.000000 32.000000 0.000000
248 1 1 24.000000 34.000000 0.000000
249 1 1 24.000000 36.000000 0.000000
250 1 1 24.000000 38.000000 0.000000
251 1 1 24.000000 40.000000 0.000000
252 1 2 24.000000 42.000000 0.000000
253 1 2 26.000000 2.000000 0.000000
254 1 1 26.000000 4.000000 0.000000
255 1 1 26.000000 6.000000 0.000000
256 1 1 26.000000 8.000000 0.000000
257 1 1 26.000000 10.000000 0.000000
258 1 1 26.000000 12.000000 0.000000
259 1 1 26.000000 14.000000 0.000000
260 1 1 26.000000 16.000000 0.000000
261 1 1 26.000000 18.000000 0.000000
262 1 1 26.000000 20.000000 0.000000
263 1 1 26.000000 22.000000 0.000000
264 1 1 26.000000 24.000000 0.000000
265 1 1 26.000000 26.000000 0.000000
266 1 1 26.000000 28.000000 0.000000
267 1 1 26.000000 30.000000 0.000000
268 1 1 26.000000 32.000000 0.000000
269 1 1 26.000000 34.000000 0.000000
270 1 1 26.000000 36.000000 0.000000
271 1 1 26.000000 38.000000 0.000000
272 1 1 26.000000 40.000000 0.000000
273 1 2 26.000000 42.000000 0.000000
274 1 2 28.000000 2.000000 0.000000
275 1 1 28.000000 4.000000 0.000000
276 1 1 28.000000 6.000000 0.000000
277 1 1 28.000000 8.000000 0.000000
278 1 1 28.000000 10.000000 0.000000
279 1 1 28.000000 12.000000 0.000000
280 1 1 28.000000 14.000000 0.000000
281 1 1 28.000000 16.000000 0.000000
282 1 1 28.000000 18.000000 0.000000
283 1 1 28.000000 20.000000 0.000000
284 1 1 28.000000 22.000000 0.000000
285 1 1 28.000000 24.000000 0.000000
286 1 1 28.000000 26.000000 0.000000
287 1 1 28.000000 28.000000 0.000000
288 1 1 28.000000 30.000000 0.000000
289 1 1 28.000000 32.000000 0.000000
290 1 1 28.000000 34.000000 0.000000
291 1 1 28.000000 36.000000 0.000000
292 1 1 28.000000 38.000000 0.000000
293 1 1 28.000000 40.000000 0.000000
294 1 2 28.000000 42.000000 0.000000
295 1 2 30.000000 2.000000 0.000000
296 1 1 30.000000 4.000000 0.000000
297 1 1 30.000000 6.000000 0.000000
298 1 1 30.000000 8.000000 0.000000
299 1 1 30.000000 10.000000 0.000000
300 1 1 30.000000 12.000000 0.000000
301 1 1 30.000000 14.000000 0.000000
302 1 1 30.000000 16.000000 0.000000
303 1 1 30.000000 18.000000 0.000000
304 1 1 30.000000 20.000000 0.000000
305 1 1 30.000000 22.000000 0.000000
306 1 1 30.000000 24.000000 0.000000
307 1 1 30.000000 26.000000 0.000000
308 1 1 30.000000 28.000000 0.000000
309 1 1 30.000000 30.000000 0.000000
310 1 1 30.000000 32.000000 0.000000
311 1 1 30.000000 34.000000 0.000000
312 1 1 30.000000 36.000000 0.000000
313 1 1 30.000000 38.000000 0.000000
314 1 1 30.000000 40.000000 0.000000
315 1 2 30.000000 42.000000 0.000000
316 1 2 32.000000 2.000000 0.000000
317 1 1 32.000000 4.000000 0.000000
318 1 1 32.000000 6.000000 0.000000
319 1 1 32.000000 8.000000 0.000000
320 1 1 32.000000 10.000000 0.000000
321 1 1 32.000000 12.000000 0.000000
322 1 1 32.000000 14.000000 0.000000
323 1 1 32.000000 16.000000 0.000000
324 1 1 32.000000 18.000000 0.000000
325 1 1 32.000000 20.000000 0.000000
326 1 1 32.000000 22.000000 0.000000
327 1 1 32.000000 24.000000 0.000000
328 1 1 32.000000 26.000000 0.000000
329 1 1 32.000000 28.000000 0.000000
330 1 1 32.000000 30.000000 0.000000
331 1 1 32.000000 32.000000 0.000000
332 1 1 32.000000 34.000000 0.000000
333 1 1 32.000000 36.000000 0.000000
334 1 1 32.000000 38.000000 0.000000
335 1 1 32.000000 40.000000 0.000000
336 1 2 32.000000 42.000000 0.000000
337 1 2 34.000000 2.000000 0.000000
338 1 1 34.000000 4.000000 0.000000
339 1 1 34.000000 6.000000 0.000000
340 1 1 34.000000 8.000000 0.000000
341 1 1 34.000000 10.000000 0.000000
342 1 1 34.000000 12.000000 0.000000
343 1 1 34.000000 14.000000 0.000000
344 1 1 34.000000 16.000000 0.000000
345 1 1 34.000000 18.000000 0.000000
346 1 1 34.000000 20.000000 0.000000
347 1 1 34.000000 22.000000 0.000000
348 1 1 34.000000 24.000000 0.000000
349 1 1 34.000000 26.000000 0.000000
350 1 1 34.000000 28.000000 0.000000
351 1 1 34.000000 30.000000 0.000000
352 1 1 34.000000 32.000000 0.000000
353 1 1 34.000000 34.000000 0.000000
354 1 1 34.000000 36.000000 0.000000
355 1 1 34.000000 38.000000 0.000000
356 1 1 34.000000 40.000000 0.000000
357 1 2 34.000000 42.000000 0.000000
358 1 2 36.000000 2.000000 0.000000
359 1 1 36.000000 4.000000 0.000000
360 1 1 36.000000 6.000000 0.000000
361 1 1 36.000000 8.000000 0.000000
362 1 1 36.000000 10.000000 0.000000
363 1 1 36.000000 12.000000 0.000000
364 1 1 36.000000 14.000000 0.000000
365 1 1 36.000000 16.000000 0.000000
366 1 1 36.000000 18.000000 0.000000
367 1 1 36.000000 20.000000 0.000000
368 1 1 36.000000 22.000000 0.000000
369 1 1 36.000000 24.000000 0.000000
370 1 1 36.000000 26.000000 0.000000
371 1 1 36.000000 28.000000 0.000000
372 1 1 36.000000 30.000000 0.000000
373 1 1 36.000000 32.000000 0.000000
374 1 1 36.000000 34.000000 0.000000
375 1 1 36.000000 36.000000 0.000000
376 1 1 36.000000 38.000000 0.000000
377 1 1 36.000000 40.000000 0.000000
378 1 2 36.000000 42.000000 0.000000
379 1 2 38.000000 2.000000 0.000000
380 1 1 38.000000 4.000000 0.000000
381 1 1 38.000000 6.000000 0.000000
382 1 1 38.000000 8.000000 0.000000
383 1 1 38.000000 10.000000 0.000000
384 1 1 38.000000 12.000000 0.000000
385 1 1 38.000000 14.000000 0.000000
386 1 1 38.000000 16.000000 0.000000
387 1 1 38.000000 18.000000 0.000000
388 1 1 38.000000 20.000000 0.000000
389 1 1 38.000000 22.000000 0.000000
390 1 1 38.000000 24.000000 0.000000
391 1 1 38.000000 26.000000 0.000000
392 1 1 38.000000 28.000000 0.000000
393 1 1 38.000000 30.000000 0.000000
394 1 1 38.000000 32.000000 0.000000
395 1 1 38.000000 34.000000 0.000000
396 1 1 38.000000 36.000000 0.000000
397 1 1 38.000000 38.000000 0.000000
398 1 1 38.000000 40.000000 0.000000
399 1 2 38.000000 42.000000 0.000000
400 1 2 40.000000 2.000000 0.000000
401 1 1 40.000000 4.000000 0.000000
402 1 1 40.000000 6.000000 0.000000
403 1 1 40.000000 8.000000 0.000000
404 1 1 40.000000 10.000000 0.000000
405 1 1 40.000000 12.000000 0.000000
406 1 1 40.000000 14.000000 0.000000
407 1 1 40.000000 16.000000 0.000000
408 1 1 40.000000 18.000000 0.000000
409 1 1 40.000000 20.000000 0.000000
410 1 1 40.000000 22.000000 0.000000
411 1 1 40.000000 24.000000 0.000000
412 1 1 40.000000 26.000000 0.000000
413 1 1 40.000000 28.000000 0.000000
414 1 1 40.000000 30.000000 0.000000
415 1 1 40.000000 32.000000 0.000000
416 1 1 40.000000 34.000000 0.000000
417 1 1 40.000000 36.000000 0.000000
418 1 1 40.000000 38.000000 0.000000
419 1 1 40.000000 40.000000 0.000000
420 1 2 40.000000 42.000000 0.000000
421 1 2 42.000000 2.000000 0.000000
422 1 2 42.000000 4.000000 0.000000
423 1 2 42.000000 6.000000 0.000000
424 1 2 42.000000 8.000000 0.000000
425 1 2 42.000000 10.000000 0.000000
426 1 2 42.000000 12.000000 0.000000
427 1 2 42.000000 14.000000 0.000000
428 1 2 42.000000 16.000000 0.000000
429 1 2 42.000000 18.000000 0.000000
430 1 2 42.000000 20.000000 0.000000
431 1 2 42.000000 22.000000 0.000000
432 1 2 42.000000 24.000000 0.000000
433 1 2 42.000000 26.000000 0.000000
434 1 2 42.000000 28.000000 0.000000
435 1 2 42.000000 30.000000 0.000000
436 1 2 42.000000 32.000000 0.000000
437 1 2 42.000000 34.000000 0.000000
438 1 2 42.000000 36.000000 0.000000
439 1 2 42.000000 38.000000 0.000000
440 1 2 42.000000 40.000000 0.000000
441 1 2 42.000000 42.000000 0.000000
442 2 3 22.000000 22.000000 8.00000

Bonds

1 1 1 2
2 1 2 3
3 1 3 4
4 1 4 5
5 1 5 6
6 1 6 7
7 1 7 8
8 1 8 9
9 1 9 10
10 1 10 11
11 1 11 12
12 1 12 13
13 1 13 14
14 1 14 15
15 1 15 16
16 1 16 17
17 1 17 18
18 1 18 19
19 1 19 20
20 1 20 21
21 1 22 23
22 1 23 24
23 1 24 25
24 1 25 26
25 1 26 27
26 1 27 28
27 1 28 29
28 1 29 30
29 1 30 31
30 1 31 32
31 1 32 33
32 1 33 34
33 1 34 35
34 1 35 36
35 1 36 37
36 1 37 38
37 1 38 39
38 1 39 40
39 1 40 41
40 1 41 42
41 1 43 44
42 1 44 45
43 1 45 46
44 1 46 47
45 1 47 48
46 1 48 49
47 1 49 50
48 1 50 51
49 1 51 52
50 1 52 53
51 1 53 54
52 1 54 55
53 1 55 56
54 1 56 57
55 1 57 58
56 1 58 59
57 1 59 60
58 1 60 61
59 1 61 62
60 1 62 63
61 1 64 65
62 1 65 66
63 1 66 67
64 1 67 68
65 1 68 69
66 1 69 70
67 1 70 71
68 1 71 72
69 1 72 73
70 1 73 74
71 1 74 75
72 1 75 76
73 1 76 77
74 1 77 78
75 1 78 79
76 1 79 80
77 1 80 81
78 1 81 82
79 1 82 83
80 1 83 84
81 1 85 86
82 1 86 87
83 1 87 88
84 1 88 89
85 1 89 90
86 1 90 91
87 1 91 92
88 1 92 93
89 1 93 94
90 1 94 95
91 1 95 96
92 1 96 97
93 1 97 98
94 1 98 99
95 1 99 100
96 1 100 101
97 1 101 102
98 1 102 103
99 1 103 104
100 1 104 105
101 1 106 107
102 1 107 108
103 1 108 109
104 1 109 110
105 1 110 111
106 1 111 112
107 1 112 113
108 1 113 114
109 1 114 115
110 1 115 116
111 1 116 117
112 1 117 118
113 1 118 119
114 1 119 120
115 1 120 121
116 1 121 122
117 1 122 123
118 1 123 124
119 1 124 125
120 1 125 126
121 1 127 128
122 1 128 129
123 1 129 130
124 1 130 131
125 1 131 132
126 1 132 133
127 1 133 134
128 1 134 135
129 1 135 136
130 1 136 137
131 1 137 138
132 1 138 139
133 1 139 140
134 1 140 141
135 1 141 142
136 1 142 143
137 1 143 144
138 1 144 145
139 1 145 146
140 1 146 147
141 1 148 149
142 1 149 150
143 1 150 151
144 1 151 152
145 1 152 153
146 1 153 154
147 1 154 155
148 1 155 156
149 1 156 157
150 1 157 158
151 1 158 159
152 1 159 160
153 1 160 161
154 1 161 162
155 1 162 163
156 1 163 164
157 1 164 165
158 1 165 166
159 1 166 167
160 1 167 168
161 1 169 170
162 1 170 171
163 1 171 172
164 1 172 173
165 1 173 174
166 1 174 175
167 1 175 176
168 1 176 177
169 1 177 178
170 1 178 179
171 1 179 180
172 1 180 181
173 1 181 182
174 1 182 183
175 1 183 184
176 1 184 185
177 1 185 186
178 1 186 187
179 1 187 188
180 1 188 189
181 1 190 191
182 1 191 192
183 1 192 193
184 1 193 194
185 1 194 195
186 1 195 196
187 1 196 197
188 1 197 198
189 1 198 199
190 1 199 200
191 1 200 201
192 1 201 202
193 1 202 203
194 1 203 204
195 1 204 205
196 1 205 206
197 1 206 207
198 1 207 208
199 1 208 209
200 1 209 210
201 1 211 212
202 1 212 213
203 1 213 214
204 1 214 215
205 1 215 216
206 1 216 217
207 1 217 218
208 1 218 219
209 1 219 220
210 1 220 221
211 1 221 222
212 1 222 223
213 1 223 224
214 1 224 225
215 1 225 226
216 1 226 227
217 1 227 228
218 1 228 229
219 1 229 230
220 1 230 231
221 1 232 233
222 1 233 234
223 1 234 235
224 1 235 236
225 1 236 237
226 1 237 238
227 1 238 239
228 1 239 240
229 1 240 241
230 1 241 242
231 1 242 243
232 1 243 244
233 1 244 245
234 1 245 246
235 1 246 247
236 1 247 248
237 1 248 249
238 1 249 250
239 1 250 251
240 1 251 252
241 1 253 254
242 1 254 255
243 1 255 256
244 1 256 257
245 1 257 258
246 1 258 259
247 1 259 260
248 1 260 261
249 1 261 262
250 1 262 263
251 1 263 264
252 1 264 265
253 1 265 266
254 1 266 267
255 1 267 268
256 1 268 269
257 1 269 270
258 1 270 271
259 1 271 272
260 1 272 273
261 1 274 275
262 1 275 276
263 1 276 277
264 1 277 278
265 1 278 279
266 1 279 280
267 1 280 281
268 1 281 282
269 1 282 283
270 1 283 284
271 1 284 285
272 1 285 286
273 1 286 287
274 1 287 288
275 1 288 289
276 1 289 290
277 1 290 291
278 1 291 292
279 1 292 293
280 1 293 294
281 1 295 296
282 1 296 297
283 1 297 298
284 1 298 299
285 1 299 300
286 1 300 301
287 1 301 302
288 1 302 303
289 1 303 304
290 1 304 305
291 1 305 306
292 1 306 307
293 1 307 308
294 1 308 309
295 1 309 310
296 1 310 311
297 1 311 312
298 1 312 313
299 1 313 314
300 1 314 315
301 1 316 317
302 1 317 318
303 1 318 319
304 1 319 320
305 1 320 321
306 1 321 322
307 1 322 323
308 1 323 324
309 1 324 325
310 1 325 326
311 1 326 327
312 1 327 328
313 1 328 329
314 1 329 330
315 1 330 331
316 1 331 332
317 1 332 333
318 1 333 334
319 1 334 335
320 1 335 336
321 1 337 338
322 1 338 339
323 1 339 340
324 1 340 341
325 1 341 342
326 1 342 343
327 1 343 344
328 1 344 345
329 1 345 346
330 1 346 347
331 1 347 348
332 1 348 349
333 1 349 350
334 1 350 351
335 1 351 352
336 1 352 353
337 1 353 354
338 1 354 355
339 1 355 356
340 1 356 357
341 1 358 359
342 1 359 360
343 1 360 361
344 1 361 362
345 1 362 363
346 1 363 364
347 1 364 365
348 1 365 366
349 1 366 367
350 1 367 368
351 1 368 369
352 1 369 370
353 1 370 371
354 1 371 372
355 1 372 373
356 1 373 374
357 1 374 375
358 1 375 376
359 1 376 377
360 1 377 378
361 1 379 380
362 1 380 381
363 1 381 382
364 1 382 383
365 1 383 384
366 1 384 385
367 1 385 386
368 1 386 387
369 1 387 388
370 1 388 389
371 1 389 390
372 1 390 391
373 1 391 392
374 1 392 393
375 1 393 394
376 1 394 395
377 1 395 396
378 1 396 397
379 1 397 398
380 1 398 399
381 1 400 401
382 1 401 402
383 1 402 403
384 1 403 404
385 1 404 405
386 1 405 406
387 1 406 407
388 1 407 408
389 1 408 409
390 1 409 410
391 1 410 411
392 1 411 412
393 1 412 413
394 1 413 414
395 1 414 415
396 1 415 416
397 1 416 417
398 1 417 418
399 1 418 419
400 1 419 420
401 1 421 422
402 1 422 423
403 1 423 424
404 1 424 425
405 1 425 426
406 1 426 427
407 1 427 428
408 1 428 429
409 1 429 430
410 1 430 431
411 1 431 432
412 1 432 433
413 1 433 434
414 1 434 435
415 1 435 436
416 1 436 437
417 1 437 438
418 1 438 439
419 1 439 440
420 1 440 441
421 1 1 22
422 1 2 23
423 1 3 24
424 1 4 25
425 1 5 26
426 1 6 27
427 1 7 28
428 1 8 29
429 1 9 30
430 1 10 31
431 1 11 32
432 1 12 33
433 1 13 34
434 1 14 35
435 1 15 36
436 1 16 37
437 1 17 38
438 1 18 39
439 1 19 40
440 1 20 41
441 1 21 42
442 1 22 43
443 1 23 44
444 1 24 45
445 1 25 46
446 1 26 47
447 1 27 48
448 1 28 49
449 1 29 50
450 1 30 51
451 1 31 52
452 1 32 53
453 1 33 54
454 1 34 55
455 1 35 56
456 1 36 57
457 1 37 58
458 1 38 59
459 1 39 60
460 1 40 61
461 1 41 62
462 1 42 63
463 1 43 64
464 1 44 65
465 1 45 66
466 1 46 67
467 1 47 68
468 1 48 69
469 1 49 70
470 1 50 71
471 1 51 72
472 1 52 73
473 1 53 74
474 1 54 75
475 1 55 76
476 1 56 77
477 1 57 78
478 1 58 79
479 1 59 80
480 1 60 81
481 1 61 82
482 1 62 83
483 1 63 84
484 1 64 85
485 1 65 86
486 1 66 87
487 1 67 88
488 1 68 89
489 1 69 90
490 1 70 91
491 1 71 92
492 1 72 93
493 1 73 94
494 1 74 95
495 1 75 96
496 1 76 97
497 1 77 98
498 1 78 99
499 1 79 100
500 1 80 101
501 1 81 102
502 1 82 103
503 1 83 104
504 1 84 105
505 1 85 106
506 1 86 107
507 1 87 108
508 1 88 109
509 1 89 110
510 1 90 111
511 1 91 112
512 1 92 113
513 1 93 114
514 1 94 115
515 1 95 116
516 1 96 117
517 1 97 118
518 1 98 119
519 1 99 120
520 1 100 121
521 1 101 122
522 1 102 123
523 1 103 124
524 1 104 125
525 1 105 126
526 1 106 127
527 1 107 128
528 1 108 129
529 1 109 130
530 1 110 131
531 1 111 132
532 1 112 133
533 1 113 134
534 1 114 135
535 1 115 136
536 1 116 137
537 1 117 138
538 1 118 139
539 1 119 140
540 1 120 141
541 1 121 142
542 1 122 143
543 1 123 144
544 1 124 145
545 1 125 146
546 1 126 147
547 1 127 148
548 1 128 149
549 1 129 150
550 1 130 151
551 1 131 152
552 1 132 153
553 1 133 154
554 1 134 155
555 1 135 156
556 1 136 157
557 1 137 158
558 1 138 159
559 1 139 160
560 1 140 161
561 1 141 162
562 1 142 163
563 1 143 164
564 1 144 165
565 1 145 166
566 1 146 167
567 1 147 168
568 1 148 169
569 1 149 170
570 1 150 171
571 1 151 172
572 1 152 173
573 1 153 174
574 1 154 175
575 1 155 176
576 1 156 177
577 1 157 178
578 1 158 179
579 1 159 180
580 1 160 181
581 1 161 182
582 1 162 183
583 1 163 184
584 1 164 185
585 1 165 186
586 1 166 187
587 1 167 188
588 1 168 189
589 1 169 190
590 1 170 191
591 1 171 192
592 1 172 193
593 1 173 194
594 1 174 195
595 1 175 196
596 1 176 197
597 1 177 198
598 1 178 199
599 1 179 200
600 1 180 201
601 1 181 202
602 1 182 203
603 1 183 204
604 1 184 205
605 1 185 206
606 1 186 207
607 1 187 208
608 1 188 209
609 1 189 210
610 1 190 211
611 1 191 212
612 1 192 213
613 1 193 214
614 1 194 215
615 1 195 216
616 1 196 217
617 1 197 218
618 1 198 219
619 1 199 220
620 1 200 221
621 1 201 222
622 1 202 223
623 1 203 224
624 1 204 225
625 1 205 226
626 1 206 227
627 1 207 228
628 1 208 229
629 1 209 230
630 1 210 231
631 1 211 232
632 1 212 233
633 1 213 234
634 1 214 235
635 1 215 236
636 1 216 237
637 1 217 238
638 1 218 239
639 1 219 240
640 1 220 241
641 1 221 242
642 1 222 243
643 1 223 244
644 1 224 245
645 1 225 246
646 1 226 247
647 1 227 248
648 1 228 249
649 1 229 250
650 1 230 251
651 1 231 252
652 1 232 253
653 1 233 254
654 1 234 255
655 1 235 256
656 1 236 257
657 1 237 258
658 1 238 259
659 1 239 260
660 1 240 261
661 1 241 262
662 1 242 263
663 1 243 264
664 1 244 265
665 1 245 266
666 1 246 267
667 1 247 268
668 1 248 269
669 1 249 270
670 1 250 271
671 1 251 272
672 1 252 273
673 1 253 274
674 1 254 275
675 1 255 276
676 1 256 277
677 1 257 278
678 1 258 279
679 1 259 280
680 1 260 281
681 1 261 282
682 1 262 283
683 1 263 284
684 1 264 285
685 1 265 286
686 1 266 287
687 1 267 288
688 1 268 289
689 1 269 290
690 1 270 291
691 1 271 292
692 1 272 293
693 1 273 294
694 1 274 295
695 1 275 296
696 1 276 297
697 1 277 298
698 1 278 299
699 1 279 300
700 1 280 301
701 1 281 302
702 1 282 303
703 1 283 304
704 1 284 305
705 1 285 306
706 1 286 307
707 1 287 308
708 1 288 309
709 1 289 310
710 1 290 311
711 1 291 312
712 1 292 313
713 1 293 314
714 1 294 315
715 1 295 316
716 1 296 317
717 1 297 318
718 1 298 319
719 1 299 320
720 1 300 321
721 1 301 322
722 1 302 323
723 1 303 324
724 1 304 325
725 1 305 326
726 1 306 327
727 1 307 328
728 1 308 329
729 1 309 330
730 1 310 331
731 1 311 332
732 1 312 333
733 1 313 334
734 1 314 335
735 1 315 336
736 1 316 337
737 1 317 338
738 1 318 339
739 1 319 340
740 1 320 341
741 1 321 342
742 1 322 343
743 1 323 344
744 1 324 345
745 1 325 346
746 1 326 347
747 1 327 348
748 1 328 349
749 1 329 350
750 1 330 351
751 1 331 352
752 1 332 353
753 1 333 354
754 1 334 355
755 1 335 356
756 1 336 357
757 1 337 358
758 1 338 359
759 1 339 360
760 1 340 361
761 1 341 362
762 1 342 363
763 1 343 364
764 1 344 365
765 1 345 366
766 1 346 367
767 1 347 368
768 1 348 369
769 1 349 370
770 1 350 371
771 1 351 372
772 1 352 373
773 1 353 374
774 1 354 375
775 1 355 376
776 1 356 377
777 1 357 378
778 1 358 379
779 1 359 380
780 1 360 381
781 1 361 382
782 1 362 383
783 1 363 384
784 1 364 385
785 1 365 386
786 1 366 387
787 1 367 388
788 1 368 389
789 1 369 390
790 1 370 391
791 1 371 392
792 1 372 393
793 1 373 394
794 1 374 395
795 1 375 396
796 1 376 397
797 1 377 398
798 1 378 399
799 1 379 400
800 1 380 401
801 1 381 402
802 1 382 403
803 1 383 404
804 1 384 405
805 1 385 406
806 1 386 407
807 1 387 408
808 1 388 409
809 1 389 410
810 1 390 411
811 1 391 412
812 1 392 413
813 1 393 414
814 1 394 415
815 1 395 416
816 1 396 417
817 1 397 418
818 1 398 419
819 1 399 420
820 1 400 421
821 1 401 422
822 1 402 423
823 1 403 424
824 1 404 425
825 1 405 426
826 1 406 427
827 1 407 428
828 1 408 429
829 1 409 430
830 1 410 431
831 1 411 432
832 1 412 433
833 1 413 434
834 1 414 435
835 1 415 436
836 1 416 437
837 1 417 438
838 1 418 439
839 1 419 440
840 1 420 441
841 2 221 442

Angles

1 1 2 23 24
2 1 3 24 25
3 1 4 25 26
4 1 5 26 27
5 1 6 27 28
6 1 7 28 29
7 1 8 29 30
8 1 9 30 31
9 1 10 31 32
10 1 11 32 33
11 1 12 33 34
12 1 13 34 35
13 1 14 35 36
14 1 15 36 37
15 1 16 37 38
16 1 17 38 39
17 1 18 39 40
18 1 19 40 41
19 1 20 41 42
20 1 23 44 45
21 1 24 45 46
22 1 25 46 47
23 1 26 47 48
24 1 27 48 49
25 1 28 49 50
26 1 29 50 51
27 1 30 51 52
28 1 31 52 53
29 1 32 53 54
30 1 33 54 55
31 1 34 55 56
32 1 35 56 57
33 1 36 57 58
34 1 37 58 59
35 1 38 59 60
36 1 39 60 61
37 1 40 61 62
38 1 41 62 63
39 1 44 65 66
40 1 45 66 67
41 1 46 67 68
42 1 47 68 69
43 1 48 69 70
44 1 49 70 71
45 1 50 71 72
46 1 51 72 73
47 1 52 73 74
48 1 53 74 75
49 1 54 75 76
50 1 55 76 77
51 1 56 77 78
52 1 57 78 79
53 1 58 79 80
54 1 59 80 81
55 1 60 81 82
56 1 61 82 83
57 1 62 83 84
58 1 65 86 87
59 1 66 87 88
60 1 67 88 89
61 1 68 89 90
62 1 69 90 91
63 1 70 91 92
64 1 71 92 93
65 1 72 93 94
66 1 73 94 95
67 1 74 95 96
68 1 75 96 97
69 1 76 97 98
70 1 77 98 99
71 1 78 99 100
72 1 79 100 101
73 1 80 101 102
74 1 81 102 103
75 1 82 103 104
76 1 83 104 105
77 1 86 107 108
78 1 87 108 109
79 1 88 109 110
80 1 89 110 111
81 1 90 111 112
82 1 91 112 113
83 1 92 113 114
84 1 93 114 115
85 1 94 115 116
86 1 95 116 117
87 1 96 117 118
88 1 97 118 119
89 1 98 119 120
90 1 99 120 121
91 1 100 121 122
92 1 101 122 123
93 1 102 123 124
94 1 103 124 125
95 1 104 125 126
96 1 107 128 129
97 1 108 129 130
98 1 109 130 131
99 1 110 131 132
100 1 111 132 133
101 1 112 133 134
102 1 113 134 135
103 1 114 135 136
104 1 115 136 137
105 1 116 137 138
106 1 117 138 139
107 1 118 139 140
108 1 119 140 141
109 1 120 141 142
110 1 121 142 143
111 1 122 143 144
112 1 123 144 145
113 1 124 145 146
114 1 125 146 147
115 1 128 149 150
116 1 129 150 151
117 1 130 151 152
118 1 131 152 153
119 1 132 153 154
120 1 133 154 155
121 1 134 155 156
122 1 135 156 157
123 1 136 157 158
124 1 137 158 159
125 1 138 159 160
126 1 139 160 161
127 1 140 161 162
128 1 141 162 163
129 1 142 163 164
130 1 143 164 165
131 1 144 165 166
132 1 145 166 167
133 1 146 167 168
134 1 149 170 171
135 1 150 171 172
136 1 151 172 173
137 1 152 173 174
138 1 153 174 175
139 1 154 175 176
140 1 155 176 177
141 1 156 177 178
142 1 157 178 179
143 1 158 179 180
144 1 159 180 181
145 1 160 181 182
146 1 161 182 183
147 1 162 183 184
148 1 163 184 185
149 1 164 185 186
150 1 165 186 187
151 1 166 187 188
152 1 167 188 189
153 1 170 191 192
154 1 171 192 193